LAMMPS (9 Oct 2020)
OMP_NUM_THREADS environment is not set. Defaulting to 1 thread. (src/comm.cpp:94)
  using 1 OpenMP thread(s) per MPI task

# 1. Инициализация
units metal
dimension 3
boundary p p p
atom_style atomic

# 2. Создание атомов и задания начальной структуры меди (ГЦК)
lattice fcc 3.615
Lattice spacing in x,y,z = 3.6150000 3.6150000 3.6150000
region box block 0 10 0 10 0 10
create_box 1 box
Created orthogonal box = (0.0000000 0.0000000 0.0000000) to (36.150000 36.150000 36.150000)
  1 by 1 by 1 MPI processor grid
create_atoms 1 box
Created 4000 atoms
  create_atoms CPU = 0.000 seconds

# 3. Задание взаимодействий через потенциал Эмбеди
pair_style eam
pair_coeff * * Cu_u3.eam
Reading eam potential file Cu_u3.eam with DATE: 2007-06-11

# 4. Определение вычислений и условий
mass 1 63.546
velocity all create 300.0 12345 mom yes rot yes

# 5. Управление шагами симуляции и вывод результатов
thermo 100
thermo_style custom step temp pe ke etotal press
dump 1 all atom 100 dump.cube_stretch2
dump_modify 1 scale yes

# 6. Фиксация границ и растяжение куба по оси z
fix 1 all nvt temp 300.0 300.0 100.0
fix 2 all deform 1 z erate 0.001 units box

# 7. Запуск симуляции
run 5000
Neighbor list info ...
  update every 1 steps, delay 10 steps, check yes
  max neighbors/atom: 2000, page size: 100000
  master list distance cutoff = 6.95
  ghost atom cutoff = 6.95
  binsize = 3.475, bins = 11 11 11
  1 neighbor lists, perpetual/occasional/extra = 1 0 0
  (1) pair eam, perpetual
      attributes: half, newton on
      pair build: half/bin/atomonly/newton
      stencil: half/bin/3d/newton
      bin: standard
Per MPI rank memory allocation (min/avg/max) = 5.503 | 5.503 | 5.503 Mbytes
Step Temp PotEng KinEng TotEng Press 
       0          300       -14160     155.0734   -14004.927    3506.1302 
     100    143.44879   -14079.077    74.150304   -14004.926    10137.098 
     200    154.29126    -14084.71    79.754898   -14004.955    9301.8442 
     300    153.80027   -14084.476    79.501103   -14004.975    9295.5365 
     400    144.87311   -14079.882    74.886548   -14004.996    9531.4955 
     500     155.7781   -14085.542    80.523463   -14005.019    8885.9629 
     600    146.32323   -14080.674    75.636135   -14005.037    9201.2006 
     700     148.1671   -14081.648    76.589251   -14005.059    8932.1968 
     800    152.20049   -14083.752    78.674156   -14005.078    8702.3861 
     900    145.77784   -14080.451    75.354216   -14005.097    8728.9126 
    1000    151.84141   -14083.604    78.488545   -14005.115    8436.6254 
    1100    151.84471   -14083.624    78.490248   -14005.133    8274.5679 
    1200    148.85127   -14082.094    76.942905   -14005.151    8201.6072 
    1300     147.6479   -14081.488     76.32087   -14005.167    8127.0349 
    1400    154.38441   -14084.988    79.803049   -14005.185    7697.9322 
    1500    145.42492   -14080.371    75.171787   -14005.199    7967.6053 
    1600    149.50483   -14082.496    77.280739   -14005.215    7637.4292 
    1700    150.65633   -14083.106    77.875961    -14005.23    7480.3561 
    1800     140.8429   -14078.046    72.803288   -14005.242    7729.1411 
    1900    154.86521    -14085.31    80.051579   -14005.258    6998.6961 
    2000    148.95284   -14082.265    76.995411    -14005.27    7131.5697 
    2100    148.24618   -14081.913    76.630126   -14005.283     6963.401 
    2200    152.91395   -14084.337    79.042954   -14005.294    6675.3599 
    2300     146.8796   -14081.229    75.923729   -14005.305    6802.8916 
    2400    151.57783   -14083.669    78.352295   -14005.317    6453.3515 
    2500     153.4773   -14084.661    79.334154   -14005.327    6245.4561 
    2600     149.4839   -14082.606    77.269918   -14005.336    6234.7089 
    2700    150.95599   -14083.375    78.030862   -14005.344     6098.891 
    2800    147.82953   -14081.768    76.414756   -14005.353    5999.0905 
    2900    152.42945   -14084.154     78.79251   -14005.361    5730.1962 
    3000    153.11873   -14084.517    79.148807   -14005.368    5578.7556 
    3100    144.63038   -14080.135    74.761081   -14005.374    5781.2716 
    3200    152.96777   -14084.452    79.070774   -14005.381     5304.998 
    3300    151.83454   -14083.872    78.484992   -14005.387    5219.1907 
    3400    150.35741   -14083.114    77.721447   -14005.392    5133.0366 
    3500    150.53145   -14083.208    77.811408   -14005.397    4967.8445 
    3600     148.1211   -14081.966    76.565471   -14005.401     4942.876 
    3700     151.3693   -14083.648    78.244503   -14005.404    4718.2914 
    3800    148.34518   -14082.088    76.681301   -14005.407    4629.7841 
    3900    148.51359   -14082.177    76.768358   -14005.409    4518.9027 
    4000    149.98069   -14082.937    77.526715   -14005.411    4322.5326 
    4100    149.67883   -14082.782    77.370684   -14005.411    4247.2533 
    4200    148.74157   -14082.298    76.886204   -14005.412    4081.8081 
    4300    149.65474    -14082.77    77.358227   -14005.412    3928.4226 
    4400    148.66068   -14082.256    76.844389   -14005.411    3808.1699 
    4500    149.72517   -14082.805    77.394634    -14005.41    3667.8885 
    4600    147.72359   -14081.768    76.359995   -14005.408    3594.7313 
    4700    150.68165   -14083.295    77.889049   -14005.406    3308.7551 
    4800      147.287   -14081.538    76.134318   -14005.403    3327.8113 
    4900    148.84244   -14082.338    76.938341     -14005.4    3150.6124 
    5000    147.67692   -14081.732    76.335873   -14005.396    3035.0045 
Loop time of 12.7405 on 1 procs for 5000 steps with 4000 atoms

Performance: 33.908 ns/day, 0.708 hours/ns, 392.449 timesteps/s
63.3% CPU use with 1 MPI tasks x 1 OpenMP threads

MPI task timing breakdown:
Section |  min time  |  avg time  |  max time  |%varavg| %total
---------------------------------------------------------------
Pair    | 12.092     | 12.092     | 12.092     |   0.0 | 94.91
Neigh   | 0          | 0          | 0          |   0.0 |  0.00
Comm    | 0.082496   | 0.082496   | 0.082496   |   0.0 |  0.65
Output  | 0.1983     | 0.1983     | 0.1983     |   0.0 |  1.56
Modify  | 0.31023    | 0.31023    | 0.31023    |   0.0 |  2.43
Other   |            | 0.05734    |            |       |  0.45

Nlocal:        4000.00 ave        4000 max        4000 min
Histogram: 1 0 0 0 0 0 0 0 0 0
Nghost:        5841.00 ave        5841 max        5841 min
Histogram: 1 0 0 0 0 0 0 0 0 0
Neighs:       268000.0 ave      268000 max      268000 min
Histogram: 1 0 0 0 0 0 0 0 0 0

Total # of neighbors = 268000
Ave neighs/atom = 67.000000
Neighbor list builds = 0
Dangerous builds = 0
Total wall time: 0:00:12
